3
energy=0.0
O 0.0 0.0 0.0
H 0.0 0.0 1.0
H 0.0 1.0 0.0
3
energy=0.0000001
O 0.0 0.0 0.0
H 0.00001 0.0 1.0
H 0.0 1.00001 0.0
3
energy=0.01
O 0.5 0.0 0.0
H 0.0 0.0 1.0
H 0.0 1.5 0.0
